<?xml version="1.0" encoding="UTF-8"?>

<!-- generated on 10/14/20 09:32:36 by Eclipse SUMO GUI Version 1.3.1
<configuration xmlns:xsi="http://www.w3.org/2001/XMLSchema-instance" xsi:noNamespaceSchemaLocation="http://sumo.dlr.de/xsd/sumoConfiguration.xsd">

    <input>
        <net-file value="C:\Users\wangyannan\Desktop\practice\SUMO\task\task.net.xml"/>
        <route-files value="C:\Users\wangyannan\Desktop\practice\SUMO\task\task.rou.xml"/>
    </input>

    <output>
        <queue-output value="C:\Users\wangyannan\Desktop\practice\SUMO\task\output_queue.xml"/>
    </output>

    <time>
        <begin value="0"/>
        <end value="3600"/>
    </time>

</configuration>
-->

<queue-export xmlns:xsi="http://www.w3.org/2001/XMLSchema-instance" xsi:noNamespaceSchemaLocation="http://sumo.dlr.de/xsd/queue_file.xsd">
</queue-export>
